Program Version,EnergyPlus, Version 25.1.0-68a4a7c774, YMD=2025.10.22 13:13
1,5,Environment Title[],Latitude[deg],Longitude[deg],Time Zone[],Elevation[m]
2,8,Day of Simulation[],Month[],Day of Month[],DST Indicator[1=yes 0=no],Hour[],StartMinute[],EndMinute[],DayType
3,5,Cumulative Day of Simulation[],Month[],Day of Month[],DST Indicator[1=yes 0=no],DayType  ! When Daily Report Variables Requested
4,2,Cumulative Days of Simulation[],Month[]  ! When Monthly Report Variables Requested
5,1,Cumulative Days of Simulation[] ! When Run Period Report Variables Requested
6,1,Calendar Year of Simulation[] ! When Annual Report Variables Requested
7,1,Environment,Site Outdoor Air Drybulb Temperature [C] !TimeStep
8,1,CUBO,Zone Mean Air Temperature [C] !TimeStep
End of Data Dictionary
1,RUN PERIOD 1,  18.85, -99.14,  -6.00,1280.00
2,1, 5,15, 0, 1, 0.00, 1.00,Thursday
7,25.4
8,31.529839374127942
2,1, 5,15, 0, 1, 1.00, 2.00,Thursday
7,25.4
8,31.516260701208264
2,1, 5,15, 0, 1, 2.00, 3.00,Thursday
7,25.4
8,31.50265618661452
2,1, 5,15, 0, 1, 3.00, 4.00,Thursday
7,25.4
8,31.489015792200885
2,1, 5,15, 0, 1, 4.00, 5.00,Thursday
7,25.3
8,31.475337019117195
2,1, 5,15, 0, 1, 5.00, 6.00,Thursday
7,25.3
8,31.461598657779227
2,1, 5,15, 0, 1, 6.00, 7.00,Thursday
7,25.3
8,31.447787299410276
2,1, 5,15, 0, 1, 7.00, 8.00,Thursday
7,25.3
8,31.433874543355998
2,1, 5,15, 0, 1, 8.00, 9.00,Thursday
7,25.2
8,31.419835369333
2,1, 5,15, 0, 1, 9.00,10.00,Thursday
7,25.2
8,31.40566205672278
2,1, 5,15, 0, 1,10.00,11.00,Thursday
7,25.2
8,31.39133702031296
2,1, 5,15, 0, 1,11.00,12.00,Thursday
7,25.2
8,31.376849283948957
2,1, 5,15, 0, 1,12.00,13.00,Thursday
7,25.1
8,31.362196583850825
2,1, 5,15, 0, 1,13.00,14.00,Thursday
7,25.1
8,31.347383136166638
2,1, 5,15, 0, 1,14.00,15.00,Thursday
7,25.1
8,31.33241732155434
2,1, 5,15, 0, 1,15.00,16.00,Thursday
7,25.1
8,31.317310156304522
2,1, 5,15, 0, 1,16.00,17.00,Thursday
7,25.1
8,31.302074323479257
2,1, 5,15, 0, 1,17.00,18.00,Thursday
7,25.0
8,31.286723470084564
2,1, 5,15, 0, 1,18.00,19.00,Thursday
7,25.0
8,31.27126146665847
2,1, 5,15, 0, 1,19.00,20.00,Thursday
7,25.0
8,31.255708725563704
2,1, 5,15, 0, 1,20.00,21.00,Thursday
7,25.0
8,31.240084322203607
2,1, 5,15, 0, 1,21.00,22.00,Thursday
7,24.9
8,31.22439271647734
2,1, 5,15, 0, 1,22.00,23.00,Thursday
7,24.9
8,31.208651996801525
2,1, 5,15, 0, 1,23.00,24.00,Thursday
7,24.9
8,31.192867611980372
2,1, 5,15, 0, 1,24.00,25.00,Thursday
7,24.9
8,31.177056963240137
2,1, 5,15, 0, 1,25.00,26.00,Thursday
7,24.8
8,31.161223421876606
2,1, 5,15, 0, 1,26.00,27.00,Thursday
7,24.8
8,31.145381805679037
2,1, 5,15, 0, 1,27.00,28.00,Thursday
7,24.8
8,31.12953293413343
2,1, 5,15, 0, 1,28.00,29.00,Thursday
7,24.8
8,31.113689301207174
2,1, 5,15, 0, 1,29.00,30.00,Thursday
7,24.7
8,31.09784963648275
2,1, 5,15, 0, 1,30.00,31.00,Thursday
7,24.7
8,31.082024561016464
2,1, 5,15, 0, 1,31.00,32.00,Thursday
7,24.7
8,31.06621111798095
2,1, 5,15, 0, 1,32.00,33.00,Thursday
7,24.7
8,31.05041841784457
2,1, 5,15, 0, 1,33.00,34.00,Thursday
7,24.7
8,31.0346421657224
2,1, 5,15, 0, 1,34.00,35.00,Thursday
7,24.6
8,31.018890283326606
2,1, 5,15, 0, 1,35.00,36.00,Thursday
7,24.6
8,31.003157443290334
2,1, 5,15, 0, 1,36.00,37.00,Thursday
7,24.6
8,30.987450658514955
2,1, 5,15, 0, 1,37.00,38.00,Thursday
7,24.6
8,30.971763845063123
2,1, 5,15, 0, 1,38.00,39.00,Thursday
7,24.5
8,30.95610336542485
2,1, 5,15, 0, 1,39.00,40.00,Thursday
7,24.5
8,30.94047274542254
2,1, 5,15, 0, 1,40.00,41.00,Thursday
7,24.5
8,30.924861280975744
2,1, 5,15, 0, 1,41.00,42.00,Thursday
7,24.5
8,30.90927306575241
2,1, 5,15, 0, 1,42.00,43.00,Thursday
7,24.5
8,30.89370088407957
2,1, 5,15, 0, 1,43.00,44.00,Thursday
7,24.4
8,30.878150698020722
2,1, 5,15, 0, 1,44.00,45.00,Thursday
7,24.4
8,30.862625785250415
2,1, 5,15, 0, 1,45.00,46.00,Thursday
7,24.4
8,30.847115206157824
2,1, 5,15, 0, 1,46.00,47.00,Thursday
7,24.4
8,30.831622780546773
2,1, 5,15, 0, 1,47.00,48.00,Thursday
7,24.3
8,30.8161512109564
2,1, 5,15, 0, 1,48.00,49.00,Thursday
7,24.3
8,30.800689687498114
2,1, 5,15, 0, 1,49.00,50.00,Thursday
7,24.3
8,30.78524230475584
2,1, 5,15, 0, 1,50.00,51.00,Thursday
7,24.3
8,30.769811989065918
2,1, 5,15, 0, 1,51.00,52.00,Thursday
7,24.2
8,30.75438809637681
2,1, 5,15, 0, 1,52.00,53.00,Thursday
7,24.2
8,30.73897482616717
2,1, 5,15, 0, 1,53.00,54.00,Thursday
7,24.2
8,30.723575186798637
2,1, 5,15, 0, 1,54.00,55.00,Thursday
7,24.2
8,30.70817862143207
2,1, 5,15, 0, 1,55.00,56.00,Thursday
7,24.2
8,30.692789385098312
2,1, 5,15, 0, 1,56.00,57.00,Thursday
7,24.1
8,30.67741053708542
2,1, 5,15, 0, 1,57.00,58.00,Thursday
7,24.1
8,30.662041718945137
2,1, 5,15, 0, 1,58.00,59.00,Thursday
7,24.1
8,30.646670631869544
2,1, 5,15, 0, 1,59.00,60.00,Thursday
7,24.1
8,30.63130131337789
2,1, 5,15, 0, 2, 0.00, 1.00,Thursday
7,24.0
8,30.615937218396073
2,1, 5,15, 0, 2, 1.00, 2.00,Thursday
7,24.0
8,30.60056832498919
2,1, 5,15, 0, 2, 2.00, 3.00,Thursday
7,24.0
8,30.585199344009467
2,1, 5,15, 0, 2, 3.00, 4.00,Thursday
7,24.0
8,30.569833721733865
2,1, 5,15, 0, 2, 4.00, 5.00,Thursday
7,24.0
8,30.554471454338042
2,1, 5,15, 0, 2, 5.00, 6.00,Thursday
7,23.9
8,30.53910058955043
2,1, 5,15, 0, 2, 6.00, 7.00,Thursday
7,23.9
8,30.523725481095674
2,1, 5,15, 0, 2, 7.00, 8.00,Thursday
7,23.9
8,30.508349878885753
2,1, 5,15, 0, 2, 8.00, 9.00,Thursday
7,23.9
8,30.492964043639972
2,1, 5,15, 0, 2, 9.00,10.00,Thursday
7,23.9
8,30.47757294844345
2,1, 5,15, 0, 2,10.00,11.00,Thursday
7,23.8
8,30.46218029248596
2,1, 5,15, 0, 2,11.00,12.00,Thursday
7,23.8
8,30.446786319705016
2,1, 5,15, 0, 2,12.00,13.00,Thursday
7,23.8
8,30.431379323406713
2,1, 5,15, 0, 2,13.00,14.00,Thursday
7,23.8
8,30.415963917500065
2,1, 5,15, 0, 2,14.00,15.00,Thursday
7,23.7
8,30.400544124669167
2,1, 5,15, 0, 2,15.00,16.00,Thursday
7,23.7
8,30.385110473509865
2,1, 5,15, 0, 2,16.00,17.00,Thursday
7,23.7
8,30.369668217901456
2,1, 5,15, 0, 2,17.00,18.00,Thursday
7,23.7
8,30.354221327193574
2,1, 5,15, 0, 2,18.00,19.00,Thursday
7,23.7
8,30.3387601538537
2,1, 5,15, 0, 2,19.00,20.00,Thursday
7,23.6
8,30.32328981531641
2,1, 5,15, 0, 2,20.00,21.00,Thursday
7,23.6
8,30.30781420389973
2,1, 5,15, 0, 2,21.00,22.00,Thursday
7,23.6
8,30.292323626765516
2,1, 5,15, 0, 2,22.00,23.00,Thursday
7,23.6
8,30.2768231758288
2,1, 5,15, 0, 2,23.00,24.00,Thursday
7,23.6
8,30.261316735925796
2,1, 5,15, 0, 2,24.00,25.00,Thursday
7,23.5
8,30.24579461683195
2,1, 5,15, 0, 2,25.00,26.00,Thursday
7,23.5
8,30.230261936294202
2,1, 5,15, 0, 2,26.00,27.00,Thursday
7,23.5
8,30.214722612219795
2,1, 5,15, 0, 2,27.00,28.00,Thursday
7,23.5
8,30.19916698280162
2,1, 5,15, 0, 2,28.00,29.00,Thursday
7,23.4
8,30.183600223541177
2,1, 5,15, 0, 2,29.00,30.00,Thursday
7,23.4
8,30.168026317716016
2,1, 5,15, 0, 2,30.00,31.00,Thursday
7,23.4
8,30.152435650190025
2,1, 5,15, 0, 2,31.00,32.00,Thursday
7,23.4
8,30.136833456932944
2,1, 5,15, 0, 2,32.00,33.00,Thursday
7,23.4
8,30.121213635403326
2,1, 5,15, 0, 2,33.00,34.00,Thursday
7,23.3
8,30.105583190038864
2,1, 5,15, 0, 2,34.00,35.00,Thursday
7,23.3
8,30.089946437469358
2,1, 5,15, 0, 2,35.00,36.00,Thursday
7,23.3
8,30.074293493446543
2,1, 5,15, 0, 2,36.00,37.00,Thursday
7,23.3
8,30.058629235821712
2,1, 5,15, 0, 2,37.00,38.00,Thursday
7,23.3
8,30.04294729210402
2,1, 5,15, 0, 2,38.00,39.00,Thursday
7,23.2
8,30.027254506103148
2,1, 5,15, 0, 2,39.00,40.00,Thursday
7,23.2
8,30.011555103194663
2,1, 5,15, 0, 2,40.00,41.00,Thursday
7,23.2
8,29.99583913423678
2,1, 5,15, 0, 2,41.00,42.00,Thursday
7,23.2
8,29.980111470279542
2,1, 5,15, 0, 2,42.00,43.00,Thursday
7,23.2
8,29.96436573328245
2,1, 5,15, 0, 2,43.00,44.00,Thursday
7,23.1
8,29.948608811779796
2,1, 5,15, 0, 2,44.00,45.00,Thursday
7,23.1
8,29.932834844551277
2,1, 5,15, 0, 2,45.00,46.00,Thursday
7,23.1
8,29.91705055169287
2,1, 5,15, 0, 2,46.00,47.00,Thursday
7,23.1
8,29.901249808141653
2,1, 5,15, 0, 2,47.00,48.00,Thursday
7,23.1
8,29.885439142000802
2,1, 5,15, 0, 2,48.00,49.00,Thursday
7,23.0
8,29.869612325481032
2,1, 5,15, 0, 2,49.00,50.00,Thursday
7,23.0
8,29.853775827976715
2,1, 5,15, 0, 2,50.00,51.00,Thursday
7,23.0
8,29.837923380634958
2,1, 5,15, 0, 2,51.00,52.00,Thursday
7,23.0
8,29.82206142885444
2,1, 5,15, 0, 2,52.00,53.00,Thursday
7,23.0
8,29.806183685368588
2,1, 5,15, 0, 2,53.00,54.00,Thursday
7,22.9
8,29.79029659172313
2,1, 5,15, 0, 2,54.00,55.00,Thursday
7,22.9
8,29.77439384742117
2,1, 5,15, 0, 2,55.00,56.00,Thursday
7,22.9
8,29.758481891151984
2,1, 5,15, 0, 2,56.00,57.00,Thursday
7,22.9
8,29.742554411984216
2,1, 5,15, 0, 2,57.00,58.00,Thursday
7,22.9
8,29.726617857647867
2,1, 5,15, 0, 2,58.00,59.00,Thursday
7,22.8
8,29.710665914822183
2,1, 5,15, 0, 2,59.00,60.00,Thursday
7,22.8
8,29.69470503945636
2,1, 5,15, 0, 3, 0.00, 1.00,Thursday
7,22.8
8,29.678728908023835
2,1, 5,15, 0, 3, 1.00, 2.00,Thursday
7,22.8
8,29.662743983490493
2,1, 5,15, 0, 3, 2.00, 3.00,Thursday
7,22.8
8,29.646743938542123
2,1, 5,15, 0, 3, 3.00, 4.00,Thursday
7,22.8
8,29.630725142462957
2,1, 5,15, 0, 3, 4.00, 5.00,Thursday
7,22.7
8,29.61469786846648
2,1, 5,15, 0, 3, 5.00, 6.00,Thursday
7,22.7
8,29.598657501772145
2,1, 5,15, 0, 3, 6.00, 7.00,Thursday
7,22.7
8,29.58261059918196
2,1, 5,15, 0, 3, 7.00, 8.00,Thursday
7,22.7
8,29.56655041156397
2,1, 5,15, 0, 3, 8.00, 9.00,Thursday
7,22.7
8,29.550482986951938
2,1, 5,15, 0, 3, 9.00,10.00,Thursday
7,22.6
8,29.534401727656466
2,1, 5,15, 0, 3,10.00,11.00,Thursday
7,22.6
8,29.518302862255997
2,1, 5,15, 0, 3,11.00,12.00,Thursday
7,22.6
8,29.502196626883574
2,1, 5,15, 0, 3,12.00,13.00,Thursday
7,22.6
8,29.486078389533454
2,1, 5,15, 0, 3,13.00,14.00,Thursday
7,22.6
8,29.469954745941436
2,1, 5,15, 0, 3,14.00,15.00,Thursday
7,22.5
8,29.453818956053887
2,1, 5,15, 0, 3,15.00,16.00,Thursday
7,22.5
8,29.437666974135162
2,1, 5,15, 0, 3,16.00,17.00,Thursday
7,22.5
8,29.42150882966521
2,1, 5,15, 0, 3,17.00,18.00,Thursday
7,22.5
8,29.405339736456117
2,1, 5,15, 0, 3,18.00,19.00,Thursday
7,22.5
8,29.389156079008114
2,1, 5,15, 0, 3,19.00,20.00,Thursday
7,22.5
8,29.372967636220164
2,1, 5,15, 0, 3,20.00,21.00,Thursday
7,22.4
8,29.356769279647214
2,1, 5,15, 0, 3,21.00,22.00,Thursday
7,22.4
8,29.34055712598022
2,1, 5,15, 0, 3,22.00,23.00,Thursday
7,22.4
8,29.324340772675946
2,1, 5,15, 0, 3,23.00,24.00,Thursday
7,22.4
8,29.308114982955892
2,1, 5,15, 0, 3,24.00,25.00,Thursday
7,22.4
8,29.29187581748717
2,1, 5,15, 0, 3,25.00,26.00,Thursday
7,22.3
8,29.275632856818635
2,1, 5,15, 0, 3,26.00,27.00,Thursday
7,22.3
8,29.259380856544407
2,1, 5,15, 0, 3,27.00,28.00,Thursday
7,22.3
8,29.243115873000278
2,1, 5,15, 0, 3,28.00,29.00,Thursday
7,22.3
8,29.226847491139807
2,1, 5,15, 0, 3,29.00,30.00,Thursday
7,22.3
8,29.210570458015656
2,1, 5,15, 0, 3,30.00,31.00,Thursday
7,22.3
8,29.19428081901571
2,1, 5,15, 0, 3,31.00,32.00,Thursday
7,22.2
8,29.177988151870096
2,1, 5,15, 0, 3,32.00,33.00,Thursday
7,22.2
8,29.161687169947207
2,1, 5,15, 0, 3,33.00,34.00,Thursday
7,22.2
8,29.14537388345603
2,1, 5,15, 0, 3,34.00,35.00,Thursday
7,22.2
8,29.12905786176401
2,1, 5,15, 0, 3,35.00,36.00,Thursday
7,22.2
8,29.112733814218107
2,1, 5,15, 0, 3,36.00,37.00,Thursday
7,22.2
8,29.096397765638244
2,1, 5,15, 0, 3,37.00,38.00,Thursday
7,22.1
8,29.080049224360998
2,1, 5,15, 0, 3,38.00,39.00,Thursday
7,22.1
8,29.063699525962086
2,1, 5,15, 0, 3,39.00,40.00,Thursday
7,22.1
8,29.04734371058877
2,1, 5,15, 0, 3,40.00,41.00,Thursday
7,22.1
8,29.030977539708456
2,1, 5,15, 0, 3,41.00,42.00,Thursday
7,22.1
8,29.01461027474788
2,1, 5,15, 0, 3,42.00,43.00,Thursday
7,22.1
8,28.99823641996929
2,1, 5,15, 0, 3,43.00,44.00,Thursday
7,22.0
8,28.981851886229617
2,1, 5,15, 0, 3,44.00,45.00,Thursday
7,22.0
8,28.965456120256
2,1, 5,15, 0, 3,45.00,46.00,Thursday
7,22.0
8,28.949060436259376
2,1, 5,15, 0, 3,46.00,47.00,Thursday
7,22.0
8,28.932659854383804
2,1, 5,15, 0, 3,47.00,48.00,Thursday
7,22.0
8,28.916250128379346
2,1, 5,15, 0, 3,48.00,49.00,Thursday
7,22.0
8,28.89983043666966
2,1, 5,15, 0, 3,49.00,50.00,Thursday
7,21.9
8,28.883411894241487
2,1, 5,15, 0, 3,50.00,51.00,Thursday
7,21.9
8,28.86698940262323
2,1, 5,15, 0, 3,51.00,52.00,Thursday
7,21.9
8,28.85055863424473
2,1, 5,15, 0, 3,52.00,53.00,Thursday
7,21.9
8,28.83411870402089
2,1, 5,15, 0, 3,53.00,54.00,Thursday
7,21.9
8,28.817680682902196
2,1, 5,15, 0, 3,54.00,55.00,Thursday
7,21.9
8,28.801239439541458
2,1, 5,15, 0, 3,55.00,56.00,Thursday
7,21.8
8,28.784790621300285
2,1, 5,15, 0, 3,56.00,57.00,Thursday
7,21.8
8,28.7683333158788
2,1, 5,15, 0, 3,57.00,58.00,Thursday
7,21.8
8,28.751878566776835
2,1, 5,15, 0, 3,58.00,59.00,Thursday
7,21.8
8,28.735421206115852
2,1, 5,15, 0, 3,59.00,60.00,Thursday
7,21.8
8,28.718956854404144
2,1, 5,15, 0, 4, 0.00, 1.00,Thursday
7,21.8
8,28.702484585728158
2,1, 5,15, 0, 4, 1.00, 2.00,Thursday
7,21.8
8,28.686015441490465
2,1, 5,15, 0, 4, 2.00, 3.00,Thursday
7,21.7
8,28.669544234767393
2,1, 5,15, 0, 4, 3.00, 4.00,Thursday
7,21.7
8,28.653066558498786
2,1, 5,15, 0, 4, 4.00, 5.00,Thursday
7,21.7
8,28.636581462992478
2,1, 5,15, 0, 4, 5.00, 6.00,Thursday
7,21.7
8,28.620089911770048
2,1, 5,15, 0, 4, 6.00, 7.00,Thursday
7,21.7
8,28.603603342478788
2,1, 5,15, 0, 4, 7.00, 8.00,Thursday
7,21.7
8,28.58711639971956
2,1, 5,15, 0, 4, 8.00, 9.00,Thursday
7,21.6
8,28.570624430269802
2,1, 5,15, 0, 4, 9.00,10.00,Thursday
7,21.6
8,28.55412631410346
2,1, 5,15, 0, 4,10.00,11.00,Thursday
7,21.6
8,28.53763298490885
2,1, 5,15, 0, 4,11.00,12.00,Thursday
7,21.6
8,28.521139219013683
2,1, 5,15, 0, 4,12.00,13.00,Thursday
7,21.6
8,28.50464060896337
2,1, 5,15, 0, 4,13.00,14.00,Thursday
7,21.6
8,28.488136214033002
2,1, 5,15, 0, 4,14.00,15.00,Thursday
7,21.6
8,28.471626992650013
2,1, 5,15, 0, 4,15.00,16.00,Thursday
7,21.5
8,28.455124351960528
2,1, 5,15, 0, 4,16.00,17.00,Thursday
7,21.5
8,28.438622876781285
2,1, 5,15, 0, 4,17.00,18.00,Thursday
7,21.5
8,28.42211784367603
2,1, 5,15, 0, 4,18.00,19.00,Thursday
7,21.5
8,28.405608071081616
2,1, 5,15, 0, 4,19.00,20.00,Thursday
7,21.5
8,28.38909437815163
2,1, 5,15, 0, 4,20.00,21.00,Thursday
7,21.5
8,28.372588099406187
2,1, 5,15, 0, 4,21.00,22.00,Thursday
7,21.5
8,28.356083801171753
2,1, 5,15, 0, 4,22.00,23.00,Thursday
7,21.4
8,28.33957675396517
2,1, 5,15, 0, 4,23.00,24.00,Thursday
7,21.4
8,28.323065763330302
2,1, 5,15, 0, 4,24.00,25.00,Thursday
7,21.4
8,28.306551627325494
2,1, 5,15, 0, 4,25.00,26.00,Thursday
7,21.4
8,28.290045657768868
2,1, 5,15, 0, 4,26.00,27.00,Thursday
7,21.4
8,28.273542420698284
2,1, 5,15, 0, 4,27.00,28.00,Thursday
7,21.4
8,28.257037203537912
2,1, 5,15, 0, 4,28.00,29.00,Thursday
7,21.4
8,28.240528836179863
2,1, 5,15, 0, 4,29.00,30.00,Thursday
7,21.4
8,28.224018134498262
2,1, 5,15, 0, 4,30.00,31.00,Thursday
7,21.3
8,28.20751640669788
2,1, 5,15, 0, 4,31.00,32.00,Thursday
7,21.3
8,28.191018205860836
2,1, 5,15, 0, 4,32.00,33.00,Thursday
7,21.3
8,28.174518804655694
2,1, 5,15, 0, 4,33.00,34.00,Thursday
7,21.3
8,28.158017036575274
2,1, 5,15, 0, 4,34.00,35.00,Thursday
7,21.3
8,28.141513753693406
2,1, 5,15, 0, 4,35.00,36.00,Thursday
7,21.3
8,28.125020325267517
2,1, 5,15, 0, 4,36.00,37.00,Thursday
7,21.3
8,28.10853138647165
2,1, 5,15, 0, 4,37.00,38.00,Thursday
7,21.3
8,28.092042279443525
2,1, 5,15, 0, 4,38.00,39.00,Thursday
7,21.2
8,28.0755518750409
2,1, 5,15, 0, 4,39.00,40.00,Thursday
7,21.2
8,28.059071082241925
2,1, 5,15, 0, 4,40.00,41.00,Thursday
7,21.2
8,28.042594693909543
2,1, 5,15, 0, 4,41.00,42.00,Thursday
7,21.2
8,28.026118335777902
2,1, 5,15, 0, 4,42.00,43.00,Thursday
7,21.2
8,28.00964111902466
2,1, 5,15, 0, 4,43.00,44.00,Thursday
7,21.2
8,27.993164076520838
2,1, 5,15, 0, 4,44.00,45.00,Thursday
7,21.2
8,27.976698683803697
2,1, 5,15, 0, 4,45.00,46.00,Thursday
7,21.2
8,27.96023963997256
2,1, 5,15, 0, 4,46.00,47.00,Thursday
7,21.1
8,27.943782322431574
2,1, 5,15, 0, 4,47.00,48.00,Thursday
7,21.1
8,27.927325621424387
2,1, 5,15, 0, 4,48.00,49.00,Thursday
7,21.1
8,27.91088044707542
2,1, 5,15, 0, 4,49.00,50.00,Thursday
7,21.1
8,27.89444161121554
2,1, 5,15, 0, 4,50.00,51.00,Thursday
7,21.1
8,27.878004749841395
2,1, 5,15, 0, 4,51.00,52.00,Thursday
7,21.1
8,27.861568964261743
2,1, 5,15, 0, 4,52.00,53.00,Thursday
7,21.1
8,27.845145295868296
2,1, 5,15, 0, 4,53.00,54.00,Thursday
7,21.1
8,27.828728617407158
2,1, 5,15, 0, 4,54.00,55.00,Thursday
7,21.0
8,27.812314570614486
2,1, 5,15, 0, 4,55.00,56.00,Thursday
7,21.0
8,27.795902227986574
2,1, 5,15, 0, 4,56.00,57.00,Thursday
7,21.0
8,27.77950258675212
2,1, 5,15, 0, 4,57.00,58.00,Thursday
7,21.0
8,27.763110503601133
2,1, 5,15, 0, 4,58.00,59.00,Thursday
7,21.0
8,27.74672162994149
2,1, 5,15, 0, 4,59.00,60.00,Thursday
7,21.0
8,27.73033506375417
2,1, 5,15, 0, 5, 0.00, 1.00,Thursday
7,21.0
8,27.713961811749478
2,1, 5,15, 0, 5, 1.00, 2.00,Thursday
7,21.0
8,27.697596735019314
2,1, 5,15, 0, 5, 2.00, 3.00,Thursday
7,21.0
8,27.681235454695173
2,1, 5,15, 0, 5, 3.00, 4.00,Thursday
7,20.9
8,27.664877010183552
2,1, 5,15, 0, 5, 4.00, 5.00,Thursday
7,20.9
8,27.64853233159404
2,1, 5,15, 0, 5, 5.00, 6.00,Thursday
7,20.9
8,27.6321962534572
2,1, 5,15, 0, 5, 6.00, 7.00,Thursday
7,20.9
8,27.615864411927333
2,1, 5,15, 0, 5, 7.00, 8.00,Thursday
7,20.9
8,27.599545931642492
2,1, 5,15, 0, 5, 8.00, 9.00,Thursday
7,20.9
8,27.58323529182141
2,1, 5,15, 0, 5, 9.00,10.00,Thursday
7,20.9
8,27.566928386521855
2,1, 5,15, 0, 5,10.00,11.00,Thursday
7,20.9
8,27.550624629970155
2,1, 5,15, 0, 5,11.00,12.00,Thursday
7,20.9
8,27.534335220965357
2,1, 5,15, 0, 5,12.00,13.00,Thursday
7,20.9
8,27.51805516657087
2,1, 5,15, 0, 5,13.00,14.00,Thursday
7,20.8
8,27.50178018987517
2,1, 5,15, 0, 5,14.00,15.00,Thursday
7,20.8
8,27.485519429322263
2,1, 5,15, 0, 5,15.00,16.00,Thursday
7,20.8
8,27.4692673981224
2,1, 5,15, 0, 5,16.00,17.00,Thursday
7,20.8
8,27.453020039222167
2,1, 5,15, 0, 5,17.00,18.00,Thursday
7,20.8
8,27.436786857576873
2,1, 5,15, 0, 5,18.00,19.00,Thursday
7,20.8
8,27.420562655261598
2,1, 5,15, 0, 5,19.00,20.00,Thursday
7,20.8
8,27.404343551828177
2,1, 5,15, 0, 5,20.00,21.00,Thursday
7,20.8
8,27.388139127827593
2,1, 5,15, 0, 5,21.00,22.00,Thursday
7,20.8
8,27.371944199906572
2,1, 5,15, 0, 5,22.00,23.00,Thursday
7,20.8
8,27.355754862188967
2,1, 5,15, 0, 5,23.00,24.00,Thursday
7,20.8
8,27.339580647788214
2,1, 5,15, 0, 5,24.00,25.00,Thursday
7,20.7
8,27.323416356881093
2,1, 5,15, 0, 5,25.00,26.00,Thursday
7,20.7
8,27.307258097090003
2,1, 5,15, 0, 5,26.00,27.00,Thursday
7,20.7
8,27.291115435362542
2,1, 5,15, 0, 5,27.00,28.00,Thursday
7,20.7
8,27.274983260955054
2,1, 5,15, 0, 5,28.00,29.00,Thursday
7,20.7
8,27.258867817143848
2,1, 5,15, 0, 5,29.00,30.00,Thursday
7,20.7
8,27.24276225985121
2,1, 5,15, 0, 5,30.00,31.00,Thursday
7,20.7
8,27.226662505471655
2,1, 5,15, 0, 5,31.00,32.00,Thursday
7,20.7
8,27.210578482261983
2,1, 5,15, 0, 5,32.00,33.00,Thursday
7,20.7
8,27.19450543037057
2,1, 5,15, 0, 5,33.00,34.00,Thursday
7,20.7
8,27.178449772923866
2,1, 5,15, 0, 5,34.00,35.00,Thursday
7,20.7
8,27.162404716093743
2,1, 5,15, 0, 5,35.00,36.00,Thursday
7,20.7
8,27.146366157453645
2,1, 5,15, 0, 5,36.00,37.00,Thursday
7,20.6
8,27.130343979270396
2,1, 5,15, 0, 5,37.00,38.00,Thursday
7,20.6
8,27.11433343769947
2,1, 5,15, 0, 5,38.00,39.00,Thursday
7,20.6
8,27.098340996359255
2,1, 5,15, 0, 5,39.00,40.00,Thursday
7,20.6
8,27.082359987101448
2,1, 5,15, 0, 5,40.00,41.00,Thursday
7,20.6
8,27.06639647843
2,1, 5,15, 0, 5,41.00,42.00,Thursday
7,20.6
8,27.050444024803745
2,1, 5,15, 0, 5,42.00,43.00,Thursday
7,20.6
8,27.034508997739426
2,1, 5,15, 0, 5,43.00,44.00,Thursday
7,20.6
8,27.018585129945276
2,1, 5,15, 0, 5,44.00,45.00,Thursday
7,20.6
8,27.00267885616798
2,1, 5,15, 0, 5,45.00,46.00,Thursday
7,20.6
8,26.98678390981783
2,1, 5,15, 0, 5,46.00,47.00,Thursday
7,20.6
8,26.97090670289237
2,1, 5,15, 0, 5,47.00,48.00,Thursday
7,20.6
8,26.95504096207973
2,1, 5,15, 0, 5,48.00,49.00,Thursday
7,20.6
8,26.939193103634878
2,1, 5,15, 0, 5,49.00,50.00,Thursday
7,20.6
8,26.923356894710157
2,1, 5,15, 0, 5,50.00,51.00,Thursday
7,20.5
8,26.9075388010089
2,1, 5,15, 0, 5,51.00,52.00,Thursday
7,20.5
8,26.891732672865036
2,1, 5,15, 0, 5,52.00,53.00,Thursday
7,20.5
8,26.87594505522305
2,1, 5,15, 0, 5,53.00,54.00,Thursday
7,20.5
8,26.86016989906056
2,1, 5,15, 0, 5,54.00,55.00,Thursday
7,20.5
8,26.84441381901804
2,1, 5,15, 0, 5,55.00,56.00,Thursday
7,20.5
8,26.82867082344783
2,1, 5,15, 0, 5,56.00,57.00,Thursday
7,20.5
8,26.81294751582316
2,1, 5,15, 0, 5,57.00,58.00,Thursday
7,20.5
8,26.79723786549033
2,1, 5,15, 0, 5,58.00,59.00,Thursday
7,20.5
8,26.78154837746934
2,1, 5,15, 0, 5,59.00,60.00,Thursday
7,20.5
8,26.765882946308523
2,1, 5,15, 0, 6, 0.00, 1.00,Thursday
7,20.5
8,26.75023154949569
2,1, 5,15, 0, 6, 1.00, 2.00,Thursday
7,20.5
8,26.734598913782794
2,1, 5,15, 0, 6, 2.00, 3.00,Thursday
7,20.5
8,26.718978702290727
2,1, 5,15, 0, 6, 3.00, 4.00,Thursday
7,20.6
8,26.703377720183678
2,1, 5,15, 0, 6, 4.00, 5.00,Thursday
7,20.6
8,26.687800238590007
2,1, 5,15, 0, 6, 5.00, 6.00,Thursday
7,20.6
8,26.672236566637885
2,1, 5,15, 0, 6, 6.00, 7.00,Thursday
7,20.6
8,26.656691696195466
2,1, 5,15, 0, 6, 7.00, 8.00,Thursday
7,20.6
8,26.641159588407064
2,1, 5,15, 0, 6, 8.00, 9.00,Thursday
7,20.6
8,26.625647349211842
2,1, 5,15, 0, 6, 9.00,10.00,Thursday
7,20.7
8,26.610159618861484
2,1, 5,15, 0, 6,10.00,11.00,Thursday
7,20.7
8,26.59468719784958
2,1, 5,15, 0, 6,11.00,12.00,Thursday
7,20.7
8,26.57923558274971
2,1, 5,15, 0, 6,12.00,13.00,Thursday
7,20.7
8,26.563809315606612
2,1, 5,15, 0, 6,13.00,14.00,Thursday
7,20.7
8,26.54839974834283
2,1, 5,15, 0, 6,14.00,15.00,Thursday
7,20.8
8,26.533013013382455
2,1, 5,15, 0, 6,15.00,16.00,Thursday
7,20.8
8,26.517654200864833
2,1, 5,15, 0, 6,16.00,17.00,Thursday
7,20.8
8,26.502325142651415
2,1, 5,15, 0, 6,17.00,18.00,Thursday
7,20.8
8,26.487015970403643
2,1, 5,15, 0, 6,18.00,19.00,Thursday
7,20.8
8,26.47173299157986
2,1, 5,15, 0, 6,19.00,20.00,Thursday
7,20.9
8,26.456481993140564
2,1, 5,15, 0, 6,20.00,21.00,Thursday
7,20.9
8,26.44126551391832
2,1, 5,15, 0, 6,21.00,22.00,Thursday
7,20.9
8,26.426074268345463
2,1, 5,15, 0, 6,22.00,23.00,Thursday
7,20.9
8,26.410914973656315
2,1, 5,15, 0, 6,23.00,24.00,Thursday
7,20.9
8,26.39579372182319
2,1, 5,15, 0, 6,24.00,25.00,Thursday
7,20.9
8,26.38071328317632
2,1, 5,15, 0, 6,25.00,26.00,Thursday
7,21.0
8,26.365674571489922
2,1, 5,15, 0, 6,26.00,27.00,Thursday
7,21.0
8,26.350678084528216
2,1, 5,15, 0, 6,27.00,28.00,Thursday
7,21.0
8,26.335714505887374
2,1, 5,15, 0, 6,28.00,29.00,Thursday
7,21.0
8,26.320791128730523
2,1, 5,15, 0, 6,29.00,30.00,Thursday
7,21.1
8,26.30591456007899
2,1, 5,15, 0, 6,30.00,31.00,Thursday
7,21.1
8,26.29108785201331
2,1, 5,15, 0, 6,31.00,32.00,Thursday
7,21.1
8,26.276311998485188
2,1, 5,15, 0, 6,32.00,33.00,Thursday
7,21.1
8,26.261587445089823
2,1, 5,15, 0, 6,33.00,34.00,Thursday
7,21.1
8,26.246914757018164
2,1, 5,15, 0, 6,34.00,35.00,Thursday
7,21.2
8,26.232294742673716
2,1, 5,15, 0, 6,35.00,36.00,Thursday
7,21.2
8,26.217728390371875
2,1, 5,15, 0, 6,36.00,37.00,Thursday
7,21.2
8,26.203216789188655
2,1, 5,15, 0, 6,37.00,38.00,Thursday
7,21.2
8,26.188761076190605
2,1, 5,15, 0, 6,38.00,39.00,Thursday
7,21.2
8,26.174362407479745
2,1, 5,15, 0, 6,39.00,40.00,Thursday
7,21.3
8,26.16002194361911
2,1, 5,15, 0, 6,40.00,41.00,Thursday
7,21.3
8,26.145750834891327
2,1, 5,15, 0, 6,41.00,42.00,Thursday
7,21.3
8,26.13154390833006
2,1, 5,15, 0, 6,42.00,43.00,Thursday
7,21.3
8,26.117396834263992
2,1, 5,15, 0, 6,43.00,44.00,Thursday
7,21.3
8,26.103308890923387
2,1, 5,15, 0, 6,44.00,45.00,Thursday
7,21.4
8,26.089291403828906
2,1, 5,15, 0, 6,45.00,46.00,Thursday
7,21.4
8,26.07533992384597
2,1, 5,15, 0, 6,46.00,47.00,Thursday
7,21.4
8,26.061450719213134
2,1, 5,15, 0, 6,47.00,48.00,Thursday
7,21.4
8,26.047633393621513
2,1, 5,15, 0, 6,48.00,49.00,Thursday
7,21.5
8,26.03388314657937
2,1, 5,15, 0, 6,49.00,50.00,Thursday
7,21.5
8,26.020196462695424
2,1, 5,15, 0, 6,50.00,51.00,Thursday
7,21.5
8,26.006583169647605
2,1, 5,15, 0, 6,51.00,52.00,Thursday
7,21.5
8,25.993038690081715
2,1, 5,15, 0, 6,52.00,53.00,Thursday
7,21.6
8,25.979569556116452
2,1, 5,15, 0, 6,53.00,54.00,Thursday
7,21.6
8,25.966169466227633
2,1, 5,15, 0, 6,54.00,55.00,Thursday
7,21.6
8,25.952844625824326
2,1, 5,15, 0, 6,55.00,56.00,Thursday
7,21.6
8,25.939598993035343
2,1, 5,15, 0, 6,56.00,57.00,Thursday
7,21.6
8,25.926422931861495
2,1, 5,15, 0, 6,57.00,58.00,Thursday
7,21.7
8,25.91332140290707
2,1, 5,15, 0, 6,58.00,59.00,Thursday
7,21.7
8,25.900298518387558
2,1, 5,15, 0, 6,59.00,60.00,Thursday
7,21.7
8,25.887345265096624
2,1, 5,15, 0, 7, 0.00, 1.00,Thursday
7,21.8
8,25.87446711102089
2,1, 5,15, 0, 7, 1.00, 2.00,Thursday
7,21.9
8,25.86166850089078
2,1, 5,15, 0, 7, 2.00, 3.00,Thursday
7,22.0
8,25.848950610088995
2,1, 5,15, 0, 7, 3.00, 4.00,Thursday
7,22.1
8,25.836312881980252
2,1, 5,15, 0, 7, 4.00, 5.00,Thursday
7,22.1
8,25.823754437609193
2,1, 5,15, 0, 7, 5.00, 6.00,Thursday
7,22.2
8,25.81127467626906
2,1, 5,15, 0, 7, 6.00, 7.00,Thursday
7,22.3
8,25.798873390445713
2,1, 5,15, 0, 7, 7.00, 8.00,Thursday
7,22.4
8,25.786550732830204
2,1, 5,15, 0, 7, 8.00, 9.00,Thursday
7,22.5
8,25.774307182878314
2,1, 5,15, 0, 7, 9.00,10.00,Thursday
7,22.6
8,25.762143538130623
2,1, 5,15, 0, 7,10.00,11.00,Thursday
7,22.6
8,25.75006091829539
2,1, 5,15, 0, 7,11.00,12.00,Thursday
7,22.7
8,25.738060771267143
2,1, 5,15, 0, 7,12.00,13.00,Thursday
7,22.8
8,25.726154851924537
2,1, 5,15, 0, 7,13.00,14.00,Thursday
7,22.9
8,25.714339141294158
2,1, 5,15, 0, 7,14.00,15.00,Thursday
7,23.0
8,25.702610673313135
2,1, 5,15, 0, 7,15.00,16.00,Thursday
7,23.1
8,25.690980289778928
2,1, 5,15, 0, 7,16.00,17.00,Thursday
7,23.2
8,25.67944504402436
2,1, 5,15, 0, 7,17.00,18.00,Thursday
7,23.3
8,25.668003526712365
2,1, 5,15, 0, 7,18.00,19.00,Thursday
7,23.3
8,25.656667886251775
2,1, 5,15, 0, 7,19.00,20.00,Thursday
7,23.4
8,25.64543627908552
2,1, 5,15, 0, 7,20.00,21.00,Thursday
7,23.5
8,25.634318059924432
2,1, 5,15, 0, 7,21.00,22.00,Thursday
7,23.6
8,25.623320036885698
2,1, 5,15, 0, 7,22.00,23.00,Thursday
7,23.7
8,25.61243554088449
2,1, 5,15, 0, 7,23.00,24.00,Thursday
7,23.8
8,25.601672485737105
2,1, 5,15, 0, 7,24.00,25.00,Thursday
7,23.9
8,25.591038166866753
2,1, 5,15, 0, 7,25.00,26.00,Thursday
7,24.0
8,25.580536886436203
2,1, 5,15, 0, 7,26.00,27.00,Thursday
7,24.0
8,25.57017133057735
2,1, 5,15, 0, 7,27.00,28.00,Thursday
7,24.1
8,25.559943883382108
2,1, 5,15, 0, 7,28.00,29.00,Thursday
7,24.2
8,25.549857174194955
2,1, 5,15, 0, 7,29.00,30.00,Thursday
7,24.3
8,25.53991414454855
2,1, 5,15, 0, 7,30.00,31.00,Thursday
7,24.4
8,25.53011795381707
2,1, 5,15, 0, 7,31.00,32.00,Thursday
7,24.5
8,25.520471874114055
2,1, 5,15, 0, 7,32.00,33.00,Thursday
7,24.6
8,25.510989189648395
2,1, 5,15, 0, 7,33.00,34.00,Thursday
7,24.7
8,25.501667240477577
2,1, 5,15, 0, 7,34.00,35.00,Thursday
7,24.8
8,25.492503930519682
2,1, 5,15, 0, 7,35.00,36.00,Thursday
7,24.9
8,25.483510436669288
2,1, 5,15, 0, 7,36.00,37.00,Thursday
7,24.9
8,25.47469407769061
2,1, 5,15, 0, 7,37.00,38.00,Thursday
7,25.0
8,25.466047378447144
2,1, 5,15, 0, 7,38.00,39.00,Thursday
7,25.1
8,25.45757663569985
2,1, 5,15, 0, 7,39.00,40.00,Thursday
7,25.2
8,25.449287483568085
2,1, 5,15, 0, 7,40.00,41.00,Thursday
7,25.3
8,25.441182674672085
2,1, 5,15, 0, 7,41.00,42.00,Thursday
7,25.4
8,25.43326340802727
2,1, 5,15, 0, 7,42.00,43.00,Thursday
7,25.5
8,25.425530574036628
2,1, 5,15, 0, 7,43.00,44.00,Thursday
7,25.6
8,25.417985260240233
2,1, 5,15, 0, 7,44.00,45.00,Thursday
7,25.7
8,25.410628804464263
2,1, 5,15, 0, 7,45.00,46.00,Thursday
7,25.8
8,25.40347263689078
2,1, 5,15, 0, 7,46.00,47.00,Thursday
7,25.8
8,25.396512593274625
2,1, 5,15, 0, 7,47.00,48.00,Thursday
7,25.9
8,25.389754970406628
2,1, 5,15, 0, 7,48.00,49.00,Thursday
7,26.0
8,25.383203724885906
2,1, 5,15, 0, 7,49.00,50.00,Thursday
7,26.1
8,25.3768495614207
2,1, 5,15, 0, 7,50.00,51.00,Thursday
7,26.2
8,25.370697454034037
2,1, 5,15, 0, 7,51.00,52.00,Thursday
7,26.3
8,25.36475194231779
2,1, 5,15, 0, 7,52.00,53.00,Thursday
7,26.4
8,25.359014710378922
2,1, 5,15, 0, 7,53.00,54.00,Thursday
7,26.5
8,25.35348583566026
2,1, 5,15, 0, 7,54.00,55.00,Thursday
7,26.6
8,25.348175296196555
2,1, 5,15, 0, 7,55.00,56.00,Thursday
7,26.7
8,25.34307702493491
2,1, 5,15, 0, 7,56.00,57.00,Thursday
7,26.8
8,25.33818593582457
2,1, 5,15, 0, 7,57.00,58.00,Thursday
7,26.9
8,25.33351059939934
2,1, 5,15, 0, 7,58.00,59.00,Thursday
7,26.9
8,25.329055878677067
2,1, 5,15, 0, 7,59.00,60.00,Thursday
7,27.0
8,25.324811920306804
2,1, 5,15, 0, 8, 0.00, 1.00,Thursday
7,27.1
8,25.320782844782237
2,1, 5,15, 0, 8, 1.00, 2.00,Thursday
7,27.2
8,25.31697214645832
2,1, 5,15, 0, 8, 2.00, 3.00,Thursday
7,27.3
8,25.31338060913177
2,1, 5,15, 0, 8, 3.00, 4.00,Thursday
7,27.4
8,25.310022432297703
2,1, 5,15, 0, 8, 4.00, 5.00,Thursday
7,27.5
8,25.30688490600895
2,1, 5,15, 0, 8, 5.00, 6.00,Thursday
7,27.6
8,25.30396155345413
2,1, 5,15, 0, 8, 6.00, 7.00,Thursday
7,27.7
8,25.30126402309192
2,1, 5,15, 0, 8, 7.00, 8.00,Thursday
7,27.8
8,25.298783154987355
2,1, 5,15, 0, 8, 8.00, 9.00,Thursday
7,27.8
8,25.29652617290592
2,1, 5,15, 0, 8, 9.00,10.00,Thursday
7,27.9
8,25.29449564234083
2,1, 5,15, 0, 8,10.00,11.00,Thursday
7,28.0
8,25.292690508799893
2,1, 5,15, 0, 8,11.00,12.00,Thursday
7,28.1
8,25.291108595652386
2,1, 5,15, 0, 8,12.00,13.00,Thursday
7,28.2
8,25.28974791308665
2,1, 5,15, 0, 8,13.00,14.00,Thursday
7,28.3
8,25.288606967746883
2,1, 5,15, 0, 8,14.00,15.00,Thursday
7,28.4
8,25.287684665862084
2,1, 5,15, 0, 8,15.00,16.00,Thursday
7,28.5
8,25.2869801582566
2,1, 5,15, 0, 8,16.00,17.00,Thursday
7,28.6
8,25.28649273763959
2,1, 5,15, 0, 8,17.00,18.00,Thursday
7,28.7
8,25.28622179013024
2,1, 5,15, 0, 8,18.00,19.00,Thursday
7,28.7
8,25.286166778248088
2,1, 5,15, 0, 8,19.00,20.00,Thursday
7,28.8
8,25.286327237705077
2,1, 5,15, 0, 8,20.00,21.00,Thursday
7,28.9
8,25.286702778485054
2,1, 5,15, 0, 8,21.00,22.00,Thursday
7,29.0
8,25.287289563412397
2,1, 5,15, 0, 8,22.00,23.00,Thursday
7,29.1
8,25.288082642309487
2,1, 5,15, 0, 8,23.00,24.00,Thursday
7,29.2
8,25.289080838666187
2,1, 5,15, 0, 8,24.00,25.00,Thursday
7,29.3
8,25.29028546786474
2,1, 5,15, 0, 8,25.00,26.00,Thursday
7,29.4
8,25.291698541494995
2,1, 5,15, 0, 8,26.00,27.00,Thursday
7,29.5
8,25.293321867380413
2,1, 5,15, 0, 8,27.00,28.00,Thursday
7,29.5
8,25.295156839797258
2,1, 5,15, 0, 8,28.00,29.00,Thursday
7,29.6
8,25.297204504921115
2,1, 5,15, 0, 8,29.00,30.00,Thursday
7,29.7
8,25.299465668786567
2,1, 5,15, 0, 8,30.00,31.00,Thursday
7,29.8
8,25.301940973921624